#LAMMPS data file generated on 2025-02-18 via gen_data.py, version 1 May 2020

2000 atoms
12 atom types
1900 bonds
17 bond types

0.0000000000000000e+00   9.1945955425203138e+01    xlo xhi
0.0000000000000000e+00   9.1945955425203138e+01    ylo yhi
0.0000000000000000e+00   9.1945955425203138e+01    zlo zhi

Masses

1  129.08250  # E
2  128.08260  # Q
3  147.18000  # F
4  87.06820  # S
5  115.08440  # D
6  114.08450  # N
7  113.18460  # L
8  101.08630  # T
9  57.04220  # G
10 156.17880  # R
11 163.17780  # Y
12 99.05650  # V

Atoms

1             1    1 -1.00000   31.7107884310   32.4579669969   18.9592263085 0 0 0
2             1    2  0.00000   32.8417218966   31.3709378509   24.2307874750 0 0 0
3             1    1 -1.00000   34.7010666512   34.5686894327   28.3005029325 0 0 0
4             1    3  0.00000   37.6436844939   30.4519471575   30.4542436948 0 0 0
5             1    4  0.00000   42.5167926034   30.5073741418   33.0030312893 0 0 0
6             1    5 -1.00000   45.8750479231   29.0598678540   37.1110278515 0 0 0
7             1    6  0.00000   44.8598379035   30.1196584299   42.4113852500 0 0 0
8             1    1 -1.00000   39.8324421157   29.5624245532   44.5717359158 0 0 0
9             1    7  0.00000   40.5678763394   30.3344736943   49.9682421584 0 0 0
10            1    2  0.00000   39.4015990970   28.6393999239   55.0688919510 0 0 0
11            1    1 -1.00000   34.6150755383   28.1856693953   57.7383139538 0 0 0
12            1    7  0.00000   36.1110006019   30.0023994249   62.7092411514 0 0 0
13            1    4  0.00000   32.3993189225   29.0720871438   66.6607059647 0 0 0
14            1    8  0.00000   30.9332692355   25.5357809720   70.6081963035 0 0 0
15            1    2  0.00000   30.2529481075   21.0810187734   73.7616153870 0 0 0
16            1    9  0.00000   30.7913923917   16.3472899210   76.5094454226 0 0 0
17            1    4  0.00000   27.5133884157   16.2202428051   80.9237165927 0 0 0
18            1   10  1.00000   31.6818306719   13.1432937569   82.7711836996 0 0 0
19            1   11  0.00000   28.7086756271   14.5757757432   87.1714153342 0 0 0
20            1   12  0.00000   29.4485622563   10.9992097394   91.2842208726 0 0 0
21            2    1 -1.00000   38.4106076926   73.8674444551   29.1202792909 0 0 0
22            2    2  0.00000   33.7970034176   73.4651425146   32.0872320615 0 0 0
23            2    1 -1.00000   32.5879306293   75.1005271940   37.1969308728 0 0 0
24            2    3  0.00000   29.3607418074   70.7283975266   38.0424487491 0 0 0
25            2    4  0.00000   28.4573533164   67.7945263281   42.6056561764 0 0 0
26            2    5 -1.00000   25.1320815107   65.2983956887   46.2057517654 0 0 0
27            2    6  0.00000   21.1150642392   67.8642279308   48.9494123031 0 0 0
28            2    1 -1.00000   17.8682976938   71.5879824819   46.5318738768 0 0 0
29            2    7  0.00000   14.0352259103   72.7217251654   50.3109466772 0 0 0
30            2    2  0.00000    8.6993146699   73.5401746203   51.3637038783 0 0 0
31            2    1 -1.00000    5.1475873898   77.2673209946   49.4308028896 0 0 0
32            2    7  0.00000    2.3906845154   78.4488612286   54.0407775334 0 0 0
33            2    4  0.00000   -2.2055223294   81.3613267129   53.2354431664 0 0 0
34            2    8  0.00000   -7.6361997190   80.9368977156   52.4837476720 0 0 0
35            2    2  0.00000  -12.7142376125   79.1707181605   51.3236028830 0 0 0
36            2    9  0.00000  -17.3191705737   76.2545339059   50.5893394320 0 0 0
37            2    4  0.00000  -21.7695355321   79.4820246128   50.7468083956 0 0 0
38            2   10  1.00000  -23.9107180834   74.8442517346   52.7871664556 0 0 0
39            2   11  0.00000  -27.4587211611   78.8754391905   53.9766604052 0 0 0
40            2   12  0.00000  -32.5244841295   76.8681257591   54.7271031646 0 0 0
41            3    1 -1.00000   58.2949278366  111.3755432033   43.2064846111 0 0 0
42            3    2  0.00000   56.3488687975  107.5632204280   46.6603301886 0 0 0
43            3    1 -1.00000   51.7834011976  104.5001460560   46.5208920839 0 0 0
44            3    3  0.00000   51.2436408915  104.7056639072   51.9900407585 0 0 0
45            3    4  0.00000   46.7261215607  104.8940821194   55.1210295277 0 0 0
46            3    5 -1.00000   43.6990260808  103.2257613462   59.3991351544 0 0 0
47            3    6  0.00000   42.1159889337   98.0172305571   60.1819482932 0 0 0
48            3    1 -1.00000   45.4976613438   93.7829112808   59.2400539377 0 0 0
49            3    7  0.00000   42.7368878092   89.3919791077   61.0722785805 0 0 0
50            3    2  0.00000   42.9183020561   84.6924158783   63.9238220791 0 0 0
51            3    1 -1.00000   45.8933638529   80.1232793641   63.2065412281 0 0 0
52            3    7  0.00000   42.1004835786   76.3143132593   64.3702651804 0 0 0
53            3    4  0.00000   44.1250631938   71.2413423877   65.0200189167 0 0 0
54            3    8  0.00000   45.9682820105   67.6605413396   68.7640610168 0 0 0
55            3    2  0.00000   48.0111507686   65.2837657986   73.2839526377 0 0 0
56            3    9  0.00000   49.4339392142   63.8938449306   78.4115713853 0 0 0
57            3    4  0.00000   50.5197147505   58.5157137161   78.7910936162 0 0 0
58            3   10  1.00000   48.5629158371   59.4292970790   83.8500425635 0 0 0
59            3   11  0.00000   48.5270416516   53.9796142898   83.1061578007 0 0 0
60            3   12  0.00000   48.6862340007   51.3429788590   87.9308067413 0 0 0
61            4    1 -1.00000   41.2320176703  115.7524820161   64.0459096598 0 0 0
62            4    2  0.00000   41.7946292392  110.6253216510   62.1365393937 0 0 0
63            4    1 -1.00000   45.1500217492  108.4919203151   58.3371576225 0 0 0
64            4    3  0.00000   41.2892948210  104.9704468290   56.6227544983 0 0 0
65            4    4  0.00000   40.2063522954  103.0432639335   51.5869055556 0 0 0
66            4    5 -1.00000   39.0971683185   98.9576922054   48.0759792448 0 0 0
67            4    6  0.00000   42.3568842690   94.5905643521   47.3343309218 0 0 0
68            4    1 -1.00000   44.8246968512   92.0613211988   51.5492049568 0 0 0
69            4    7  0.00000   47.1390249626   87.6036455125   49.3059448586 0 0 0
70            4    2  0.00000   48.1103636029   82.2065760758   49.7281400053 0 0 0
71            4    1 -1.00000   50.7491054356   79.2820232502   53.5656555181 0 0 0
72            4    7  0.00000   53.4482089274   75.7135366919   50.3673495566 0 0 0
73            4    4  0.00000   55.7088821259   71.5049823055   53.0938056201 0 0 0
74            4    8  0.00000   54.8595380068   66.3211780864   54.7199148984 0 0 0
75            4    2  0.00000   52.6245628073   61.5048434786   56.1550461830 0 0 0
76            4    9  0.00000   49.4923217369   57.0154357023   56.6869904417 0 0 0
77            4    4  0.00000   52.4039448235   52.7709289785   58.6244771316 0 0 0
78            4   10  1.00000   48.7704595059   50.0615733312   55.5077741584 0 0 0
79            4   11  0.00000   52.8376622434   46.5293657508   56.6191091668 0 0 0
80            4   12  0.00000   51.0799574157   41.3320769897   56.2278429248 0 0 0
81            5    1 -1.00000  -35.5920558606   17.3521289722   32.5365852609 0 0 0
82            5    2  0.00000  -30.4301065098   16.0836409947   31.1240637033 0 0 0
83            5    1 -1.00000  -26.8252162467   18.6013279734   27.8208258268 0 0 0
84            5    3  0.00000  -24.7672472921   13.8052344686   26.0866352738 0 0 0
85            5    4  0.00000  -22.8178231941   12.3369404411   21.1581029025 0 0 0
86            5    5 -1.00000  -19.0469640781    9.9766896701   17.9241228739 0 0 0
87            5    6  0.00000  -13.7448810392   11.4354593656   17.8375063412 0 0 0
88            5    1 -1.00000  -10.9769768331   12.5923191847   22.4475730072 0 0 0
89            5    7  0.00000   -5.7664728289   13.2130520099   20.7969544014 0 0 0
90            5    2  0.00000   -0.4641556968   12.1112207427   21.7569059052 0 0 0
91            5    1 -1.00000    2.7731150842   13.2999705950   26.0405310847 0 0 0
92            5    7  0.00000    7.4041512980   14.6514267196   23.3994163711 0 0 0
93            5    4  0.00000   11.8167289269   15.0714001985   26.6565496116 0 0 0
94            5    8  0.00000   16.1321443314   12.2982470309   28.6375227046 0 0 0
95            5    2  0.00000   19.6285210839    8.3825513742   30.2790074374 0 0 0
96            5    9  0.00000   22.5980597265    3.7977314336   30.9192787571 0 0 0
97            5    4  0.00000   27.3656879724    4.8475553536   33.4520305503 0 0 0
98            5   10  1.00000   28.9080553832    0.6293751660   30.2763857850 0 0 0
99            5   11  0.00000   33.5238416034    3.0545109860   32.0276504209 0 0 0
100           5   12  0.00000   37.7465165795   -0.4688057865   31.9292585198 0 0 0
101           6    1 -1.00000   34.6639602508  115.3828181729  -11.3903265880 0 0 0
102           6    2  0.00000   35.9650584298  110.3839997857   -9.5011579189 0 0 0
103           6    1 -1.00000   36.4180571747  108.4184314376   -4.3848413527 0 0 0
104           6    3  0.00000   40.5959392921  105.1365538666   -5.8060192524 0 0 0
105           6    4  0.00000   45.0411303261  103.5906513623   -2.9604902824 0 0 0
106           6    5 -1.00000   48.5795623572   99.7888222027   -1.1509647088 0 0 0
107           6    6  0.00000   47.1003418097   95.3894078741    1.7994007156 0 0 0
108           6    1 -1.00000   42.5624459971   92.5069589437    0.6369366269 0 0 0
109           6    7  0.00000   42.8150685325   88.1475065744    3.9821660502 0 0 0
110           6    2  0.00000   42.2036879674   82.7081679938    4.5206041715 0 0 0
111           6    1 -1.00000   37.8381128579   79.4523215471    3.7565944341 0 0 0
112           6    7  0.00000   38.4303203926   76.0336809710    8.0239828448 0 0 0
113           6    4  0.00000   35.2030104066   71.5843901253    7.8132289028 0 0 0
114           6    8  0.00000   35.0151040704   66.3285109964    6.2076546158 0 0 0
115           6    2  0.00000   35.9152547308   61.4925629641    3.7469371559 0 0 0
116           6    9  0.00000   38.0629324906   57.0705715176    1.2807350378 0 0 0
117           6    4  0.00000   34.9339883177   52.6203902520    2.0887177516 0 0 0
118           6   10  1.00000   39.8831046384   50.2376455414    1.7964228853 0 0 0
119           6   11  0.00000   36.4706194498   46.5205771687    3.9854961026 0 0 0
120           6   12  0.00000   38.3463865017   41.4156985286    3.1632199706 0 0 0
121           7    1 -1.00000   65.3675699716   59.4394340234   58.5871348117 0 0 0
122           7    2  0.00000   67.8440432008   63.6574452237   61.1021819007 0 0 0
123           7    1 -1.00000   66.8342003211   69.0628154563   61.0152796208 0 0 0
124           7    3  0.00000   72.1905732137   70.2670421278   61.3381937888 0 0 0
125           7    4  0.00000   75.0567149006   74.3946039506   59.1032355722 0 0 0
126           7    5 -1.00000   78.7311015906   78.4773452906   59.3841174020 0 0 0
127           7    6  0.00000   78.3257991254   82.7257944752   62.8531238071 0 0 0
128           7    1 -1.00000   76.6935912843   82.0722007098   68.0647498252 0 0 0
129           7    7  0.00000   77.4238444553   87.0182609013   70.3587467495 0 0 0
130           7    2  0.00000   79.2353723923   89.8628731330   74.7034738738 0 0 0
131           7    1 -1.00000   77.7317394821   89.7619084745   79.9922721502 0 0 0
132           7    7  0.00000   77.8780732793   95.1395790712   81.1358028112 0 0 0
133           7    4  0.00000   77.5555379020   96.3135189604   86.4999403996 0 0 0
134           7    8  0.00000   80.5574614118   97.3223617688   90.9952862628 0 0 0
135           7    2  0.00000   84.5789653809   97.6385934309   94.7341762534 0 0 0
136           7    9  0.00000   89.3685735166   98.0300481548   97.4090777666 0 0 0
137           7    4  0.00000   88.6703654114  100.1015266715  102.4557324206 0 0 0
138           7   10  1.00000   93.7017568721  102.0282157974  101.3468456000 0 0 0
139           7   11  0.00000   91.8341852644  104.8863176781  105.6592838812 0 0 0
140           7   12  0.00000   96.0027140432  106.9475128285  108.5968455184 0 0 0
141           8    1 -1.00000   46.8972231312  101.7116383759   31.9649093532 0 0 0
142           8    2  0.00000   43.0781026697   97.8901920023   30.9349256085 0 0 0
143           8    1 -1.00000   43.3504488429   92.3989518855   30.8027456469 0 0 0
144           8    3  0.00000   39.7228327530   92.1230655900   26.6784936837 0 0 0
145           8    4  0.00000   39.4086646049   88.6383205967   22.4353316897 0 0 0
146           8    5 -1.00000   36.6236661729   85.2411238028   19.1260074873 0 0 0
147           8    6  0.00000   33.8170757934   80.8575232887   20.9021530260 0 0 0
148           8    1 -1.00000   30.7672070477   81.0218400149   25.4763888800 0 0 0
149           8    7  0.00000   28.1358372530   76.1916414103   25.5417910446 0 0 0
150           8    2  0.00000   23.3900326060   73.5380971523   26.3701310254 0 0 0
151           8    1 -1.00000   20.1583012070   73.1776267558   30.8050454842 0 0 0
152           8    7  0.00000   18.7565669786   67.8658322456   30.5435168340 0 0 0
153           8    4  0.00000   14.6442555807   66.4508013286   33.9114120923 0 0 0
154           8    8  0.00000    9.1915645136   65.8034181601   34.2055177879 0 0 0
155           8    2  0.00000    3.7625114926   66.0420257665   33.3568454692 0 0 0
156           8    9  0.00000   -1.3058232049   66.3792257604   31.2480636981 0 0 0
157           8    4  0.00000   -5.0070954171   64.0281278302   34.5677268638 0 0 0
158           8   10  1.00000   -7.3646874220   63.0396036123   29.6972812158 0 0 0
159           8   11  0.00000   -9.8323778124   59.7408784262   33.3418127747 0 0 0
160           8   12  0.00000  -14.8549598831   58.3176060483   31.6090718590 0 0 0
161           9    1 -1.00000    9.1473899561   42.4092779020   -1.9306033848 0 0 0
162           9    2  0.00000    8.0942117398   37.3424772689   -0.0682535280 0 0 0
163           9    1 -1.00000    3.4000317615   34.5072321583    0.3457772621 0 0 0
164           9    3  0.00000    5.0361285414   32.1018248152    5.0129358024 0 0 0
165           9    4  0.00000    2.1541885555   30.6046388639    9.4513396985 0 0 0
166           9    5 -1.00000    0.7732150114   26.9962715207   13.3655939298 0 0 0
167           9    6  0.00000   -1.1941974514   21.9652258231   12.3333810688 0 0 0
168           9    1 -1.00000    0.8504011231   18.8174456083    8.3130042967 0 0 0
169           9    7  0.00000   -1.6570851730   13.9648291647    8.9640258983 0 0 0
170           9    2  0.00000   -1.1457273551    8.4898000187    9.0766093481 0 0 0
171           9    1 -1.00000    0.5617377868    4.9236986262    5.2543094322 0 0 0
172           9    7  0.00000   -3.0486499544    0.8530942813    6.0566171195 0 0 0
173           9    4  0.00000   -1.7625292857   -3.8394834703    3.4911261976 0 0 0
174           9    8  0.00000    0.7804755201   -8.6736433121    4.1247413661 0 0 0
175           9    2  0.00000    3.9934027170  -12.8004632952    5.8271662997 0 0 0
176           9    9  0.00000    7.0314292874  -16.3683164154    8.7063154223 0 0 0
177           9    4  0.00000    7.3112958973  -21.2442084102    6.1775621850 0 0 0
178           9   10  1.00000    7.6131397362  -22.8941072512   11.4162056269 0 0 0
179           9   11  0.00000    6.4306724066  -27.3552603215    8.4239525798 0 0 0
180           9   12  0.00000    8.0049076734  -31.9359050529   11.0304642659 0 0 0
181          10    1 -1.00000   64.2039550077  109.1762663171   20.9454876777 0 0 0
182          10    2  0.00000   64.0779240440  103.8633574135   19.5287607535 0 0 0
183          10    1 -1.00000   60.4296746154  100.9436940555   16.6285531777 0 0 0
184          10    3  0.00000   61.2201256851   96.4864945646   19.7516487262 0 0 0
185          10    4  0.00000   57.6892500752   92.5873376993   21.3566615507 0 0 0
186          10    5 -1.00000   56.2639218218   87.3305071296   22.1201802029 0 0 0
187          10    6  0.00000   56.1374794572   83.5792846079   18.1002376758 0 0 0
188          10    1 -1.00000   60.0475750179   83.3284714184   14.2401109356 0 0 0
189          10    7  0.00000   58.8848667473   78.7580580756   11.4083916074 0 0 0
190          10    2  0.00000   60.8161297800   74.1833161523    9.0436367716 0 0 0
191          10    1 -1.00000   64.4735915607   73.4515302618    5.0026027785 0 0 0
192          10    7  0.00000   62.0423231035   69.3685950748    2.2336695999 0 0 0
193          10    4  0.00000   65.2535799138   66.9771811132   -1.5379487480 0 0 0
194          10    8  0.00000   68.7190214115   62.7925773356   -2.3848545581 0 0 0
195          10    2  0.00000   72.2923317783   58.6537637587   -1.7903209610 0 0 0
196          10    9  0.00000   75.2082928727   54.3175438629   -0.0747892910 0 0 0
197          10    4  0.00000   77.5367773370   51.6816437538   -4.3029604931 0 0 0
198          10   10  1.00000   76.7309293702   47.4414925893   -0.8929182416 0 0 0
199          10   11  0.00000   77.7417350453   45.3014807205   -5.8580280177 0 0 0
200          10   12  0.00000   79.6727841353   40.1695992760   -5.4229783054 0 0 0
201          11    1 -1.00000   54.0197415662   40.6180565533   60.9375951972 0 0 0
202          11    2  0.00000   54.0588408424   46.0507069908   60.0804018287 0 0 0
203          11    1 -1.00000   50.2857622939   49.9292289326   61.0634113977 0 0 0
204          11    3  0.00000   51.7084312893   52.7332304785   56.5513437719 0 0 0
205          11    4  0.00000   48.6363358648   55.6828627875   53.0716208024 0 0 0
206          11    5 -1.00000   47.6375828071   60.1942980423   50.0886301434 0 0 0
207          11    6  0.00000   47.2768363547   65.2525679756   52.2173300468 0 0 0
208          11    1 -1.00000   50.7193889731   67.0066814027   56.1319501503 0 0 0
209          11    7  0.00000   49.5203144524   72.3430460785   56.7190066565 0 0 0
210          11    2  0.00000   51.4428213279   77.4646730300   57.2873469447 0 0 0
211          11    1 -1.00000   54.6436680062   79.7342248857   61.1404246646 0 0 0
212          11    7  0.00000   52.1642248075   84.6116127873   61.6988740187 0 0 0
213          11    4  0.00000   55.0568064206   88.2939478903   64.5849640729 0 0 0
214          11    8  0.00000   58.6525164774   92.4297913580   64.1342856971 0 0 0
215          11    2  0.00000   62.5199780745   95.9393356277   62.4087032408 0 0 0
216          11    9  0.00000   65.8784239242   99.1819942362   59.5010086861 0 0 0
217          11    4  0.00000   67.8579572028  103.2811389939   62.5873821656 0 0 0
218          11   10  1.00000   67.7181851217  105.7858626635   57.6921309867 0 0 0
219          11   11  0.00000   68.2751210894  109.7424846999   61.4721651649 0 0 0
220          11   12  0.00000   70.5575484183  114.2403892863   59.2781264642 0 0 0
221          12    1 -1.00000   58.4448290858   45.7635345490   77.1747414828 0 0 0
222          12    2  0.00000   53.9975473913   48.9252402030   76.4853193428 0 0 0
223          12    1 -1.00000   48.7160480049   48.1337640793   77.7985945526 0 0 0
224          12    3  0.00000   46.9965064915   50.7935945433   73.3026358243 0 0 0
225          12    4  0.00000   42.6181460406   49.9090186083   70.0942003525 0 0 0
226          12    5 -1.00000   38.1970933337   51.6321586052   67.3132166211 0 0 0
227          12    6  0.00000   33.9958549361   54.3343118898   69.6144249022 0 0 0
228          12    1 -1.00000   34.7864312194   58.2630867780   73.3816586378 0 0 0
229          12    7  0.00000   29.7848024268   60.4015349925   74.2001643831 0 0 0
230          12    2  0.00000   26.7625242412   64.9550496545   74.8177765520 0 0 0
231          12    1 -1.00000   26.9903332181   68.9846399219   78.5531477981 0 0 0
232          12    7  0.00000   21.6198570653   69.8139212748   79.4009068028 0 0 0
233          12    4  0.00000   20.4638899936   74.3858707726   82.2323647168 0 0 0
234          12    8  0.00000   19.1526370621   79.7003373113   81.7084332725 0 0 0
235          12    2  0.00000   18.4344267174   84.8368580750   79.8775527888 0 0 0
236          12    9  0.00000   17.5705444660   89.3712998699   76.8873644897 0 0 0
237          12    4  0.00000   15.5588607404   93.4477834425   79.9829502616 0 0 0
238          12   10  1.00000   13.1568534143   94.6517376763   75.1832090177 0 0 0
239          12   11  0.00000   10.4783436865   97.5071381631   79.0466230129 0 0 0
240          12   12  0.00000    8.0119697545  101.9145218856   76.8680008909 0 0 0
241          13    1 -1.00000   82.7358640503   70.2035990383   -6.3644336746 0 0 0
242          13    2  0.00000   78.7155456122   70.0249019857   -2.6154195349 0 0 0
243          13    1 -1.00000   78.8460616881   70.0613882317    2.8824888226 0 0 0
244          13    3  0.00000   74.5303758954   66.6676241984    3.2024697990 0 0 0
245          13    4  0.00000   73.3855448082   62.6892374032    6.8230185542 0 0 0
246          13    5 -1.00000   69.9806942133   60.0679878108   10.2559228641 0 0 0
247          13    6  0.00000   67.4496592208   62.4885211763   14.4964978362 0 0 0
248          13    1 -1.00000   65.2770869097   67.5250475648   14.0894788059 0 0 0
249          13    7  0.00000   62.6011853459   68.2499572359   18.8406112803 0 0 0
250          13    2  0.00000   58.0281874017   70.0182918364   21.3327566499 0 0 0
251          13    1 -1.00000   55.6408336506   74.9709998084   21.4498839791 0 0 0
252          13    7  0.00000   54.1054057067   75.1731496178   26.7271951774 0 0 0
253          13    4  0.00000   50.6381698029   79.2759810129   27.9109120904 0 0 0
254          13    8  0.00000   45.3152942006   80.5671284045   28.3981253250 0 0 0
255          13    2  0.00000   39.8282694178   80.6959142323   28.0406784852 0 0 0
256          13    9  0.00000   34.4711961053   79.5174790108   27.6385131539 0 0 0
257          13    4  0.00000   31.3801605817   83.5359581899   29.7703118026 0 0 0
258          13   10  1.00000   28.1644195582   79.2090996182   30.8629991184 0 0 0
259          13   11  0.00000   26.3254350764   83.3631257613   33.9639500819 0 0 0
260          13   12  0.00000   21.0446520594   82.6151560114   35.3086797872 0 0 0
261          14    1 -1.00000   40.3373252538   -4.7154834203   57.2885045895 0 0 0
262          14    2  0.00000   38.9066431016    0.5720138873   56.7930040327 0 0 0
263          14    1 -1.00000   40.8172497038    4.5829480254   53.5514994822 0 0 0
264          14    3  0.00000   40.0708212531    8.3709813602   57.4679792820 0 0 0
265          14    4  0.00000   43.0104376263   12.8535968771   58.6973639683 0 0 0
266          14    5 -1.00000   43.4519110920   18.1986943825   59.9154866372 0 0 0
267          14    6  0.00000   41.5747214202   22.2377820826   56.6891070119 0 0 0
268          14    1 -1.00000   36.7300528490   21.8783154546   54.1099010916 0 0 0
269          14    7  0.00000   35.9986467799   26.8494310085   51.8710937501 0 0 0
270          14    2  0.00000   32.5266253621   31.0034658413   50.9019870056 0 0 0
271          14    1 -1.00000   27.7611896044   31.1882955662   48.1635653778 0 0 0
272          14    7  0.00000   28.3322321695   36.0016859996   45.5647964530 0 0 0
273          14    4  0.00000   23.7111246788   37.8702776417   43.2388844094 0 0 0
274          14    8  0.00000   19.3473810516   41.1150789721   44.0552476141 0 0 0
275          14    2  0.00000   15.3234772745   44.1472490266   46.2611347720 0 0 0
276          14    9  0.00000   12.2043090228   47.4242438917   49.3885578442 0 0 0
277          14    4  0.00000    8.2165636760   49.7943562673   46.4342905279 0 0 0
278          14   10  1.00000    9.0872670903   53.7452477893   50.1610844242 0 0 0
279          14   11  0.00000    6.2105997022   56.0403492611   46.0731768943 0 0 0
280          14   12  0.00000    3.4570613871   60.4561776480   47.8544439728 0 0 0
281          15    1 -1.00000   34.2360037902   50.5445791259   57.4387481301 0 0 0
282          15    2  0.00000   33.0668558905   50.2269657451   52.0738422662 0 0 0
283          15    1 -1.00000   28.4034915546   51.1081305938   49.2950037355 0 0 0
284          15    3  0.00000   29.5509175591   47.0970746982   45.7117077435 0 0 0
285          15    4  0.00000   26.2191926356   43.5669451170   43.1262934298 0 0 0
286          15    5 -1.00000   24.4722259823   40.9331360295   38.6251884318 0 0 0
287          15    6  0.00000   22.7154736799   43.4794071956   34.0778902783 0 0 0
288          15    1 -1.00000   25.2459063229   47.9385436475   32.0865726887 0 0 0
289          15    7  0.00000   22.7626073211   48.8858591786   27.2704515988 0 0 0
290          15    2  0.00000   23.3491959973   50.1778686650   21.9566270616 0 0 0
291          15    1 -1.00000   25.5295811482   54.5962317400   19.5139888708 0 0 0
292          15    7  0.00000   21.9205621355   55.3135383923   15.4263404109 0 0 0
293          15    4  0.00000   23.5614146874   58.8752194116   11.5691176769 0 0 0
294          15    8  0.00000   26.0982932387   59.2713885291    6.7065319197 0 0 0
295          15    2  0.00000   29.1704134271   58.3813119535    2.2319776136 0 0 0
296          15    9  0.00000   31.9287762638   56.2353020139   -2.0147572262 0 0 0
297          15    4  0.00000   32.5687044419   59.9227355419   -6.0447158989 0 0 0
298          15   10  1.00000   32.3142991649   55.3121737646   -9.0338059031 0 0 0
299          15   11  0.00000   31.5457223300   59.4960319373  -12.5206833658 0 0 0
300          15   12  0.00000   32.8966549805   58.0436994748  -17.6509988914 0 0 0
301          16    1 -1.00000   44.0889295098   24.3097754428  -12.6752371033 0 0 0
302          16    2  0.00000   48.0174808128   26.6782577028   -9.6409700676 0 0 0
303          16    1 -1.00000   51.2926910596   30.9851369350  -10.6254247991 0 0 0
304          16    3  0.00000   55.4845187584   28.6631863243   -7.9268526017 0 0 0
305          16    4  0.00000   60.8963836268   28.8830165290   -8.8807741539 0 0 0
306          16    5 -1.00000   66.1022168273   29.5562738055   -7.2391851893 0 0 0
307          16    6  0.00000   67.9556018649   34.0798925190   -4.7193769353 0 0 0
308          16    1 -1.00000   65.0181971798   36.6558582937   -0.8478931056 0 0 0
309          16    7  0.00000   68.4193356631   40.5080956936    1.1146886206 0 0 0
310          16    2  0.00000   70.4338204222   43.0493004485    5.5570118359 0 0 0
311          16    1 -1.00000   67.9553975969   45.9572447401    9.5122328533 0 0 0
312          16    7  0.00000   71.6104358191   50.0164018643   10.1543823964 0 0 0
313          16    4  0.00000   70.7824837241   53.1091467164   14.6271400030 0 0 0
314          16    8  0.00000   72.1913892368   53.7163154057   19.9076489216 0 0 0
315          16    2  0.00000   73.9578775183   52.9283940110   25.0564831612 0 0 0
316          16    9  0.00000   76.5591713747   51.3084249719   29.6235009611 0 0 0
317          16    4  0.00000   76.2254980406   55.1256554291   33.5687075137 0 0 0
318          16   10  1.00000   81.1227750234   52.9430778677   34.7974037094 0 0 0
319          16   11  0.00000   80.8118774152   57.7318466727   37.4852894973 0 0 0
320          16   12  0.00000   84.1487013592   57.7440453427   41.8579183587 0 0 0
321          17    1 -1.00000   96.8688839810   14.5171951094  -19.1303246599 0 0 0
322          17    2  0.00000   92.8807164300   15.7544504682  -15.5506991539 0 0 0
323          17    1 -1.00000   87.4374781213   16.2350484198  -16.1716213097 0 0 0
324          17    3  0.00000   87.1860610841   20.3382148316  -12.5184061681 0 0 0
325          17    4  0.00000   83.9599838741   24.7900090989  -12.3751349683 0 0 0
326          17    5 -1.00000   80.6033662044   28.2838111797   -9.7722031906 0 0 0
327          17    6  0.00000   75.9454883152   26.7644987781   -7.2735116538 0 0 0
328          17    1 -1.00000   75.6267989317   22.1638330437   -4.2760719334 0 0 0
329          17    7  0.00000   70.6422220736   22.3814269817   -1.9596416141 0 0 0
330          17    2  0.00000   67.6414402521   21.6827481496    2.5963722521 0 0 0
331          17    1 -1.00000   66.7970442514   17.2527178820    5.7434852501 0 0 0
332          17    7  0.00000   61.4325726211   17.8371761988    6.8061562266 0 0 0
333          17    4  0.00000   59.5476568656   14.5312169861   10.7777884199 0 0 0
334          17    8  0.00000   58.5326669963   14.2332562544   16.1739405645 0 0 0
335          17    2  0.00000   58.4729500405   15.0200598915   21.6172087851 0 0 0
336          17    9  0.00000   58.6133634160   17.0611957693   26.7223757180 0 0 0
337          17    4  0.00000   55.8256960801   13.8658384430   30.2246383269 0 0 0
338          17   10  1.00000   54.9930529431   18.7691935999   32.5742073535 0 0 0
339          17   11  0.00000   51.3209093897   15.3196554324   34.7809565813 0 0 0
340          17   12  0.00000   49.6874391251   17.0969547516   39.7233657130 0 0 0
341          18    1 -1.00000   53.1956887625   17.3457706793   28.7330154917 0 0 0
342          18    2  0.00000   54.5103907637   17.9150318810   34.0431473481 0 0 0
343          18    1 -1.00000   53.2261552350   21.7911756758   37.7271140130 0 0 0
344          18    3  0.00000   58.1404026964   21.3819427248   40.1618349990 0 0 0
345          18    4  0.00000   61.2762744054   25.2297938549   42.5297292755 0 0 0
346          18    5 -1.00000   64.4178834753   27.0922089484   46.6419660721 0 0 0
347          18    6  0.00000   62.7015943791   27.5271126186   51.8489619945 0 0 0
348          18    1 -1.00000   59.6074026185   23.6462822174   54.2190813471 0 0 0
349          18    7  0.00000   59.2824874706   25.1842350176   59.4905455015 0 0 0
350          18    2  0.00000   59.4978014226   23.6401630389   64.7649732076 0 0 0