#LAMMPS data file generated on 2024-06-27 via gen_data.py, version 1 May 2020

42 atoms
9 atom types
40 bonds
15 bond types

0.0000000000000000e+00   3.0000000000000000e+02    xlo xhi
0.0000000000000000e+00   3.0000000000000000e+02    ylo yhi
0.0000000000000000e+00   3.0000000000000000e+02    zlo zhi

Masses

1  156.17880  # R
2  128.18260  # K
3  147.18000  # F
4  186.17470  # W
5  128.08260  # Q
6  101.08630  # T
7  113.18460  # L
8  71.07034  # A
9  129.08250  # E

Atoms

1             1    1  1.00000  128.9104227695  136.0029065663   76.5624863353 0 0 0
2             1    1  1.00000  131.9111416662  138.3802815023   80.5113816892 0 0 0
3             1    1  1.00000  135.6227939690  137.5741799987   84.4897804310 0 0 0
4             1    2  1.00000  135.8140247364  135.9451480397   89.7389673843 0 0 0
5             1    2  1.00000  136.3552168320  140.4607260127   92.8321900864 0 0 0
6             1    2  1.00000  139.5199935105  139.0922330584   97.1176456759 0 0 0
7             1    3  0.00000  140.1922497986  137.2357295563  102.2510693122 0 0 0
8             1    2  1.00000  144.4110752168  138.5345671334  105.5322823560 0 0 0
9             1    4  0.00000  144.3351979198  142.9330110887  108.8334425168 0 0 0
10            1    5  0.00000  148.0116750104  145.8135153702  111.7389099983 0 0 0
11            1    6  0.00000  151.0865910317  147.6791927582  115.8990928484 0 0 0
12            1    7  0.00000  151.9239980485  149.3457628852  121.0743667059 0 0 0
13            1    4  0.00000  155.5405572732  152.8324709033  123.3136030871 0 0 0
14            1    8  0.00000  157.4077861133  156.9558275936  126.4375669254 0 0 0
15            1    9 -1.00000  158.3970441053  158.1288860930  131.7193516032 0 0 0
16            1    9 -1.00000  162.5119230239  161.7765890143  131.7893579081 0 0 0
17            1    6  0.00000  161.7958513867  166.2090398312  134.9659759471 0 0 0
18            1    9 -1.00000  165.9306123013  169.8052309835  134.5003394196 0 0 0
19            1    9 -1.00000  170.1634539301  171.7761481370  137.4066770324 0 0 0
20            1    9 -1.00000  172.4448432632  169.3460537222  141.7810490840 0 0 0
21            1    9 -1.00000  176.4244041687  171.5254419625  144.8908386103 0 0 0
22            2    1  1.00000  106.8485220697  149.4862537072  195.8594137317 0 0 0
23            2    1  1.00000  112.2676323569  150.2786661819  195.3541156359 0 0 0
24            2    1  1.00000  116.4440525519  150.9364159631  191.8357781620 0 0 0
25            2    2  1.00000  119.8217438932  147.8726131688  188.7619220104 0 0 0
26            2    2  1.00000  124.6411102485  147.6074587495  191.3991101089 0 0 0
27            2    2  1.00000  128.5678717612  147.5325548942  187.5483118235 0 0 0
28            2    3  0.00000  131.9347167910  144.8715970019  184.1082203071 0 0 0
29            2    2  1.00000  136.7901886355  146.7789181181  182.3651353043 0 0 0
30            2    4  0.00000  141.4711719427  145.8754279103  185.1077300105 0 0 0
31            2    5  0.00000  146.5877930781  147.8935738801  185.0547677546 0 0 0
32            2    6  0.00000  151.9524072360  148.5192376210  184.0191800854 0 0 0
33            2    7  0.00000  157.1284581767  146.7370240478  183.4766144781 0 0 0
34            2    4  0.00000  161.9963394009  149.2022498265  184.1674163656 0 0 0
35            2    8  0.00000  167.1727211605  149.9079479002  185.8863771294 0 0 0
36            2    9 -1.00000  172.2520619022  148.0829487091  184.8273102846 0 0 0
37            2    9 -1.00000  175.7032597067  152.1698737422  186.1036893380 0 0 0
38            2    6  0.00000  180.0508679580  150.8236483297  189.1917729885 0 0 0
39            2    9 -1.00000  183.0671803314  155.2076332062  190.5803666184 0 0 0
40            2    9 -1.00000  187.9623133292  157.4772881130  189.5151903241 0 0 0
41            2    9 -1.00000  191.0939401942  156.4075885458  185.1227100437 0 0 0
42            2    9 -1.00000  196.1489944104  158.4067278696  184.2817000343 0 0 0

Bonds

1  1 3 4
2  2 12 13
3  3 8 9
4  4 17 18
5  5 13 14
6  6 18 19
7  7 4 5
8  7 5 6
9  8 14 15
10 9 9 10
11 10 1 2
12 11 10 11
13 6 19 20
14 12 6 7
15 6 15 16
16 6 20 21
17 10 2 3
18 13 11 12
19 14 7 8
20 15 16 17
21 1 24 25
22 2 33 34
23 3 29 30
24 4 38 39
25 5 34 35
26 6 39 40
27 7 25 26
28 7 26 27
29 8 35 36
30 9 30 31
31 10 22 23
32 11 31 32
33 6 40 41
34 12 27 28
35 6 36 37
36 6 41 42
37 10 23 24
38 13 32 33
39 14 28 29
40 15 37 38
